 &FCI NORB=   7,NELEC=10,MS2=0,
  ORBSYM=1,1,1,1,1,1,1,
  ISYM=1,
 &END
 4.744283338191358    1    1    1    1
 -0.4158654993096034    1    1    2    1
 1.003959921787064    1    1    2    2
 0.8032907731509946    1    1    3    3
 0.1841825116008562    1    1    4    1
 -0.1258104531139651    1    1    4    2
 1.005310372843119    1    1    4    4
 1.115334191336247    1    1    5    5
 -0.2416177813854821    1    1    6    1
 0.3114692994820536    1    1    6    2
 -1.241743409045054e-15    1    1    6    3
 0.2146694659312982    1    1    6    4
 0.803571182781725    1    1    6    6
 1.058181320345852e-15    1    1    7    2
 0.3620095459163529    1    1    7    3
 0.8722516198182546    1    1    7    7
 -0.4158654993096033    2    1    1    1
 0.05799433939566895    2    1    2    1
 -0.01280065936937087    2    1    2    2
 -0.004390661132144298    2    1    3    3
 -0.02242768212535524    2    1    4    1
 0.009277044564689946    2    1    4    2
 -0.0137657893040062    2    1    4    4
 -0.01166482755604453    2    1    5    5
 0.03630696880037772    2    1    6    1
 -0.006713944231536675    2    1    6    2
 -0.00209609351024609    2    1    6    4
 -0.006933098280778891    2    1    6    6
 -0.007563850092057498    2    1    7    3
 -0.009478380541178569    2    1    7    7
 1.003959921787063    2    2    1    1
 -0.01280065936937086    2    2    2    1
 0.7291614446305856    2    2    2    2
 0.6476825666147726    2    2    3    3
 0.01633120304689672    2    2    4    1
 0.006505932758341102    2    2    4    2
 0.6769170490987356    2    2    4    4
 0.7471800209326712    2    2    5    5
 -0.0007427810393915392    2    2    6    1
 0.1435304597242199    2    2    6    2
 0.0931561305330303    2    2    6    4
 0.6154924111621874    2    2    6    6
 0.1365256998754787    2    2    7    3
 0.6257686357213277    2    2    7    7
 0.01103392935875723    3    1    3    1
 0.01786451827651812    3    1    3    2
 -0.003500646795699093    3    1    4    3
 0.003176463679508183    3    1    6    3
 0.01542508477415212    3    1    7    1
 0.01380554069018822    3    1    7    2
 -0.00972542010156234    3    1    7    4
 0.009371457892173812    3    1    7    6
 0.01786451827651812    3    2    3    1
 0.1455538914033935    3    2    3    2
 0.01916724776377102    3    2    4    3
 -0.04052515571661323    3    2    6    3
 0.02326766925733277    3    2    7    1
 0.03920211584763866    3    2    7    2
 -0.07713868527843666    3    2    7    4
 0.099683492165765    3    2    7    6
 0.8032907731509946    3    3    1    1
 -0.004390661132144313    3    3    2    1
 0.6476825666147725    3    3    2    2
 0.636403038733557    3    3    3    3
 0.006524401973272977    3    3    4    1
 0.0071500428279025    3    3    4    2
 0.6013942141124189    3    3    4    4
 0.631204715714314    3    3    5    5
 0.0001282403125030323    3    3    6    1
 0.07651024382930229    3    3    6    2
 0.04271694229682491    3    3    6    4
 0.5729912101947654    3    3    6    6
 0.09071978631606524    3    3    7    3
 0.6132131521359838    3    3    7    7
 0.184182511600856    4    1    1    1
 -0.02242768212535521    4    1    2    1
 0.01633120304689674    4    1    2    2
 0.006524401973272984    4    1    3    3
 0.02802397568222271    4    1    4    1
 0.01904210061565125    4    1    4    2
 -0.01160668116983763    4    1    4    4
 0.005130158462262395    4    1    5    5
 -0.0008401432486775311    4    1    6    1
 0.0186451716345395    4    1    6    2
 0.002549598683886651    4    1    6    4
 0.02143903602797018    4    1    6    6
 -0.0008861153298584767    4    1    7    3
 0.004181826013720622    4    1    7    7
 -0.125810453113965    4    2    1    1
 0.009277044564689953    4    2    2    1
 0.006505932758341103    4    2    2    2
 0.007150042827902467    4    2    3    3
 0.01904210061565125    4    2    4    1
 0.1233503346929013    4    2    4    2
 -0.1047764805976997    4    2    4    4
 -0.06734979607521623    4    2    5    5
 0.02024729402410303    4    2    6    1
 0.02035930975033435    4    2    6    2
 -0.02924624223298659    4    2    6    4
 0.05945631513302879    4    2    6    6
 -0.07566094181335187    4    2    7    3
 -0.01343752676604115    4    2    7    7
 -0.003500646795699093    4    3    3    1
 0.01916724776377101    4    3    3    2
 0.04661074084707358    4    3    4    3
 -0.02783287810218755    4    3    6    3
 -0.005070717659608728    4    3    7    1
 -0.03412446676052825    4    3    7    2
 0.003646521188146673    4    3    7    4
 0.04629950646428663    4    3    7    6
 1.005310372843119    4    4    1    1
 -0.01376578930400624    4    4    2    1
 0.6769170490987356    4    4    2    2
 0.601394214112419    4    4    3    3
 -0.01160668116983764    4    4    4    1
 -0.1047764805976998    4    4    4    2
 0.7897270805597995    4    4    4    4
 0.7319822505004162    4    4    5    5
 -0.01945810028195892    4    4    6    1
 0.0905990912919211    4    4    6    2
 0.1195679823175619    4    4    6    4
 0.5490782143408658    4    4    6    6
 0.1616167596708291    4    4    7    3
 0.6108513390830117    4    4    7    7
 0.02605241326905795    5    1    5    1
 0.03241415783573626    5    1    5    2
 -0.01351380083055566    5    1    5    4
 0.0159892792421915    5    1    6    5
 0.03241415783573626    5    2    5    1
 0.1440925171674968    5    2    5    2
 -0.04690305794459011    5    2    5    4
 0.05978245872758018    5    2    6    5
 0.02902482173604422    5    3    5    3
 0.02366725671379089    5    3    7    5
 -0.01351380083055565    5    4    5    1
 -0.04690305794459011    5    4    5    2
 0.05642266409564499    5    4    5    4
 -0.002370946407904603    5    4    6    5
 1.115334191336247    5    5    1    1
 -0.01166482755604452    5    5    2    1
 0.7471800209326712    5    5    2    2
 0.6312047157143139    5    5    3    3
 0.005130158462262395    5    5    4    1
 -0.06734979607521624    5    5    4    2
 0.7319822505004163    5    5    4    4
 0.8801590933750432    5    5    5    5
 -0.006283259424687829    5    5    6    1
 0.1597921319472674    5    5    6    2
 0.1132624490058563    5    5    6    4
 0.5894726885910994    5    5    6    6
 0.1888560243167584    5    5    7    3
 0.6265498360499245    5    5    7    7
 -0.2416177813854819    6    1    1    1
 0.0363069688003777    6    1    2    1
 -0.0007427810393915554    6    1    2    2
 0.0001282403125030096    6    1    3    3
 -0.0008401432486775351    6    1    4    1
 0.02024729402410303    6    1    4    2
 -0.01945810028195892    6    1    4    4
 -0.006283259424687811    6    1    5    5
 0.03177380922910306    6    1    6    1
 0.006462542277386328    6    1    6    2
 -5.930870567850265e-05    6    1    6    4
 0.008277228624437732    6    1    6    6
 -0.007089667757995401    6    1    7    3
 -0.005292021415349912    6    1    7    7
 0.3114692994820536    6    2    1    1
 -0.006713944231536659    6    2    2    1
 0.1435304597242198    6    2    2    2
 0.07651024382930231    6    2    3    3
 0.0186451716345395    6    2    4    1
 0.02035930975033439    6    2    4    2
 0.09059909129192095    6    2    4    4
 0.1597921319472674    6    2    5    5
 0.006462542277386335    6    2    6    1
 0.1023726050069287    6    2    6    2
 0.06086506311726887    6    2    6    4
 0.09672880108731226    6    2    6    6
 0.07733019885311646    6    2    7    3
 0.06971264935455816    6    2    7    7
 -1.302385222802773e-15    6    3    1    1
 0.003176463679508182    6    3    3    1
 -0.04052515571661319    6    3    3    2
 -0.02783287810218755    6    3    4    3
 0.07076990012734706    6    3    6    3
 0.003920977330455764    6    3    7    1
 0.03566610677536042    6    3    7    2
 0.04359906057980929    6    3    7    4
 -0.06457215687870134    6    3    7    6
 0.2146694659312985    6    4    1    1
 -0.002096093510246136    6    4    2    1
 0.09315613053303018    6    4    2    2
 0.04271694229682486    6    4    3    3
 0.002549598683886662    6    4    4    1
 -0.02924624223298662    6    4    4    2
 0.1195679823175618    6    4    4    4
 0.1132624490058563    6    4    5    5
 -5.930870567851657e-05    6    4    6    1
 0.06086506311726891    6    4    6    2
 0.0662349494851734    6    4    6    4
 0.04397938489456685    6    4    6    6
 0.07629091092165896    6    4    7    3
 0.04074206684991027    6    4    7    7
 0.0159892792421915    6    5    5    1
 0.05978245872758018    6    5    5    2
 -0.002370946407904611    6    5    5    4
 0.03897718185904729    6    5    6    5
 0.8035711827817251    6    6    1    1
 -0.006933098280778906    6    6    2    1
 0.6154924111621876    6    6    2    2
 0.5729912101947652    6    6    3    3
 0.02143903602797019    6    6    4    1
 0.05945631513302873    6    6    4    2
 0.5490782143408658    6    6    4    4
 0.5894726885910994    6    6    5    5
 0.008277228624437737    6    6    6    1
 0.0967288010873122    6    6    6    2
 0.04397938489456671    6    6    6    4
 0.5976690437959684    6    6    6    6
 0.03743666060752969    6    6    7    3
 -1.02695629777827e-15    6    6    7    6
 0.567373073294289    6    6    7    7
 0.01542508477415212    7    1    3    1
 0.02326766925733278    7    1    3    2
 -0.005070717659608728    7    1    4    3
 0.003920977330455769    7    1    6    3
 0.02162476673361111    7    1    7    1
 0.0182627415207076    7    1    7    2
 -0.0133519269768926    7    1    7    4
 0.01242343390797527    7    1    7    6
 1.057497188293129e-15    7    2    1    1
 0.01380554069018822    7    2    3    1
 0.03920211584763866    7    2    3    2
 -0.03412446676052823    7    2    4    3
 0.03566610677536041    7    2    6    3
 0.01826274152070761    7    2    7    1
 0.06141671410517974    7    2    7    2
 -0.01663351244760412    7    2    7    4
 -0.01030853730266284    7    2    7    6
 0.362009545916353    7    3    1    1
 -0.007563850092057533    7    3    2    1
 0.1365256998754785    7    3    2    2
 0.09071978631606532    7    3    3    3
 -0.0008861153298584736    7    3    4    1
 -0.07566094181335181    7    3    4    2
 0.1616167596708289    7    3    4    4
 0.1888560243167584    7    3    5    5
 -0.007089667757995401    7    3    6    1
 0.07733019885311641    7    3    6    2
 0.07629091092165897    7    3    6    4
 0.03743666060752936    7    3    6    6
 0.1517987005477497    7    3    7    3
 0.09339225400863951    7    3    7    7
 -0.009725420101562339    7    4    3    1
 -0.07713868527843665    7    4    3    2
 0.00364652118814667    7    4    4    3
 0.04359906057980928    7    4    6    3
 -0.01335192697689259    7    4    7    1
 -0.01663351244760413    7    4    7    2
 0.0686196547614164    7    4    7    4
 -0.05759815578479981    7    4    7    6
 0.02366725671379089    7    5    5    3
 0.02430462743020513    7    5    7    5
 0.009371457892173807    7    6    3    1
 0.09968349216576503    7    6    3    2
 0.04629950646428663    7    6    4    3
 -0.06457215687870134    7    6    6    3
 0.01242343390797527    7    6    7    1
 -0.0103085373026628    7    6    7    2
 -0.05759815578479983    7    6    7    4
 0.1156745792861099    7    6    7    6
 0.8722516198182543    7    7    1    1
 -0.009478380541178562    7    7    2    1
 0.6257686357213276    7    7    2    2
 0.6132131521359839    7    7    3    3
 0.00418182601372061    7    7    4    1
 -0.01343752676604108    7    7    4    2
 0.6108513390830116    7    7    4    4
 0.6265498360499244    7    7    5    5
 -0.005292021415349889    7    7    6    1
 0.06971264935455806    7    7    6    2
 0.04074206684991033    7    7    6    4
 0.5673730732942891    7    7    6    6
 0.0933922540086396    7    7    7    3
 0.6216307790004501    7    7    7    7
 -32.71677375261305    1    1  0  0
 0.5576295367859507    2    1  0  0
 -7.683615033915581    2    2  0  0
 -6.396175160642882    3    3  0  0
 -0.2362847846598235    4    1  0  0
 0.4201276672094686    4    2  0  0
 -7.019896010114903    4    4  0  0
 -1.709066710296398e-15    5    2  0  0
 4.021853382032211e-15    5    3  0  0
 -2.131868567578299e-15    5    4  0  0
 -7.467712509189538    5    5  0  0
 0.3093310122989269    6    1  0  0
 -1.393954156128539    6    2  0  0
 6.277636544770126e-15    6    3  0  0
 -1.057861888848195    6    4  0  0
 3.435428013377811e-15    6    5  0  0
 -5.334471111605187    6    6  0  0
 1.059048682083841e-15    7    1  0  0
 -4.191091917959966e-15    7    2  0  0
 -1.706795269100363    7    3  0  0
 -2.997602166487923e-15    7    4  0  0
 1.77635683940025e-15    7    6  0  0
 -5.61186518862031    7    7  0  0
 9.307155269556182  0  0  0  0
