 &FCI NORB=   6,NELEC= 6,MS2=0,
  ORBSYM=1,1,1,1,1,1,
  ISYM=1,
 &END
 0.4395207366823652    1    1    1    1
 0.4303548911691982    1    1    2    2
 0.4303548911691976    1    1    3    3
 0.4324114659127175    1    1    4    4
 0.4324114659127173    1    1    5    5
 0.4377150440236853    1    1    6    6
 0.1284629698653009    2    1    2    1
 -0.07708840977917122    2    1    4    2
 0.05613486905407066    2    1    4    3
 0.05613486905407058    2    1    5    2
 0.07708840977917111    2    1    5    3
 0.0470288583040445    2    1    6    4
 0.1220271032461497    2    1    6    5
 0.4303548911691982    2    2    1    1
 0.4644491898673063    2    2    2    2
 0.3902111216801268    2    2    3    3
 -0.04016772977980471    2    2    4    1
 0.4129714035751413    2    2    4    4
 0.0292496661670386    2    2    5    1
 0.01845791956236237    2    2    5    4
 0.453751063727388    2    2    5    5
 0.01210489812506169    2    2    6    2
 0.04522294261123226    2    2    6    3
 0.4410428124246704    2    2    6    6
 0.1284629698653006    3    1    3    1
 0.05613486905407069    3    1    4    2
 0.07708840977917117    3    1    4    3
 0.07708840977917111    3    1    5    2
 -0.05613486905407061    3    1    5    3
 -0.1220271032461495    3    1    6    4
 0.04702885830404451    3    1    6    5
 0.0371190340935895    3    2    3    2
 0.02924966616703865    3    2    4    1
 -0.01845791956236235    3    2    4    4
 0.0401677297798047    3    2    5    1
 -0.02038983007612354    3    2    5    4
 0.01845791956236235    3    2    5    5
 0.04522294261123228    3    2    6    2
 -0.01210489812506188    3    2    6    3
 0.4303548911691976    3    3    1    1
 0.3902111216801268    3    3    2    2
 0.4644491898673053    3    3    3    3
 0.04016772977980472    3    3    4    1
 0.4537510637273878    3    3    4    4
 -0.02924966616703852    3    3    5    1
 -0.01845791956236253    3    3    5    4
 0.4129714035751406    3    3    5    5
 -0.01210489812506195    3    3    6    2
 -0.0452229426112322    3    3    6    3
 0.4410428124246696    3    3    6    6
 -0.04016772977980475    4    1    2    2
 0.02924966616703867    4    1    3    2
 0.04016772977980475    4    1    3    3
 0.06708092098865875    4    1    4    1
 0.00805075258425602    4    1    4    4
 -0.03858614286403914    4    1    5    4
 -0.008050752584255831    4    1    5    5
 0.02344555760656567    4    1    6    2
 -0.0608348486842574    4    1    6    3
 -0.07708840977917124    4    2    2    1
 0.05613486905407068    4    2    3    1
 0.08456297122511869    4    2    4    2
 -0.01364240432945872    4    2    4    3
 0.01364240432945884    4    2    5    2
 -0.06000974275455355    4    2    5    3
 0.01725511275960077    4    2    6    1
 -0.08548331369241527    4    2    6    4
 -0.05522089027293883    4    2    6    5
 0.0561348690540707    4    3    2    1
 0.07708840977917118    4    3    3    1
 -0.01364240432945872    4    3    4    2
 0.1147035626571723    4    3    4    3
 0.02986915132249986    4    3    5    2
 -0.01364240432945881    4    3    5    3
 -0.04477232708110786    4    3    6    1
 -0.05522089027293877    4    3    6    4
 0.08548331369241532    4    3    6    5
 0.4324114659127176    4    4    1    1
 0.4129714035751413    4    4    2    2
 -0.01845791956236238    4    4    3    2
 0.453751063727388    4    4    3    3
 0.00805075258425598    4    4    4    1
 0.4766745812845964    4    4    4    4
 -0.03858614286403907    4    4    5    1
 0.4113515217939304    4    4    5    5
 -0.03918402601361746    4    4    6    2
 -0.02531227098583962    4    4    6    3
 0.4556527780494195    4    4    6    6
 0.02924966616703864    5    1    2    2
 0.04016772977980469    5    1    3    2
 -0.02924966616703855    5    1    3    3
 -0.03858614286403896    5    1    4    4
 0.06708092098865874    5    1    5    1
 -0.00805075258425586    5    1    5    4
 0.03858614286403906    5    1    5    5
 0.06083484868425739    5    1    6    2
 0.02344555760656561    5    1    6    3
 0.05613486905407063    5    2    2    1
 0.07708840977917114    5    2    3    1
 0.01364240432945883    5    2    4    2
 0.02986915132249992    5    2    4    3
 0.1147035626571721    5    2    5    2
 0.01364240432945869    5    2    5    3
 0.044772327081108    5    2    6    1
 -0.05522089027293885    5    2    6    4
 0.08548331369241516    5    2    6    5
 0.07708840977917115    5    3    2    1
 -0.05613486905407062    5    3    3    1
 -0.06000974275455353    5    3    4    2
 -0.01364240432945887    5    3    4    3
 0.01364240432945872    5    3    5    2
 0.08456297122511858    5    3    5    3
 0.01725511275960082    5    3    6    1
 0.08548331369241519    5    3    6    4
 0.05522089027293865    5    3    6    5
 0.01845791956236241    5    4    2    2
 -0.02038983007612356    5    4    3    2
 -0.01845791956236255    5    4    3    3
 -0.03858614286403916    5    4    4    1
 -0.008050752584255859    5    4    5    1
 0.03266152974533298    5    4    5    4
 -0.02531227098583964    5    4    6    2
 0.03918402601361744    5    4    6    3
 0.4324114659127175    5    5    1    1
 0.4537510637273882    5    5    2    2
 0.01845791956236233    5    5    3    2
 0.4129714035751407    5    5    3    3
 -0.008050752584255867    5    5    4    1
 0.4113515217939307    5    5    4    4
 0.03858614286403916    5    5    5    1
 0.4766745812845964    5    5    5    5
 0.03918402601361739    5    5    6    2
 0.02531227098583955    5    5    6    3
 0.4556527780494197    5    5    6    6
 0.01725511275960082    6    1    4    2
 -0.04477232708110797    6    1    4    3
 0.04477232708110815    6    1    5    2
 0.01725511275960085    6    1    5    3
 0.04831174183230159    6    1    6    1
 0.01210489812506172    6    2    2    2
 0.04522294261123228    6    2    3    2
 -0.01210489812506192    6    2    3    3
 0.02344555760656564    6    2    4    1
 -0.03918402601361733    6    2    4    4
 0.06083484868425743    6    2    5    1
 -0.02531227098583961    6    2    5    4
 0.03918402601361736    6    2    5    5
 0.07072261162668346    6    2    6    2
 0.04522294261123234    6    3    2    2
 -0.01210489812506191    6    3    3    2
 -0.04522294261123218    6    3    3    3
 -0.0608348486842574    6    3    4    1
 -0.02531227098583951    6    3    4    4
 0.02344555760656562    6    3    5    1
 0.03918402601361743    6    3    5    4
 0.02531227098583954    6    3    5    5
 0.07072261162668338    6    3    6    3
 0.04702885830404455    6    4    2    1
 -0.1220271032461495    6    4    3    1
 -0.08548331369241537    6    4    4    2
 -0.05522089027293887    6    4    4    3
 -0.05522089027293885    6    4    5    2
 0.08548331369241523    6    4    5    3
 0.1495739946672079    6    4    6    4
 -1.068767043932391e-15    6    4    6    6
 0.1220271032461497    6    5    2    1
 0.04702885830404462    6    5    3    1
 -0.05522089027293882    6    5    4    2
 0.0854833136924153    6    5    4    3
 0.08548331369241531    6    5    5    2
 0.05522089027293874    6    5    5    3
 0.1495739946672083    6    5    6    5
 0.4377150440236856    6    6    1    1
 0.4410428124246705    6    6    2    2
 0.44104281242467    6    6    3    3
 0.4556527780494198    6    6    4    4
 0.4556527780494201    6    6    5    5
 -1.218597078679798e-15    6    6    6    4
 0.4711656173226788    6    6    6    6
 -2.649517967319044    1    1  0  0
 -2.360994257443047    2    2  0  0
 -2.360994257443044    3    3  0  0
 -1.862035764123398    4    4  0  0
 -1.862035764123396    5    5  0  0
 -1.435627559712861e-15    6    5  0  0
 -1.41542349971391    6    6  0  0
 5.801952712942068  0  0  0  0
