 &FCI NORB=   4,NELEC= 4,MS2=0,
  ORBSYM=1,1,1,1,
  ISYM=1,
 &END
 0.8369463786153084    1    1    1    1
 -0.0124239237573785    1    1    2    1
 0.4707223576563326    1    1    2    2
 0.001596814416476328    1    1    3    1
 -0.01360081892696192    1    1    3    2
 0.2625076313883377    1    1    3    3
 -0.0008856038559716959    1    1    4    1
 0.002138217761724553    1    1    4    2
 -0.002644182073427072    1    1    4    3
 0.1738130155755416    1    1    4    4
 -0.01242392375737762    2    1    1    1
 0.0107105521640416    2    1    2    1
 -0.008862930911813607    2    1    2    2
 -0.001245320602716318    2    1    3    1
 -0.001672732474970605    2    1    3    2
 -0.01132732293189832    2    1    3    3
 0.0002140262044717826    2    1    4    1
 0.0004232952522842162    2    1    4    2
 0.0007003363132756607    2    1    4    3
 -0.002644182073426969    2    1    4    4
 0.4707223576563326    2    2    1    1
 -0.008862930911815059    2    2    2    1
 0.9181574969555476    2    2    2    2
 -0.007870527929227947    2    2    3    1
 -0.01554215272972681    2    2    3    2
 0.4962480498396173    2    2    3    3
 0.001655075759577265    2    2    4    1
 0.001159325946790215    2    2    4    2
 -0.01132732293189867    2    2    4    3
 0.2625076313883373    2    2    4    4
 0.001596814416475974    3    1    1    1
 -0.001245320602716096    3    1    2    1
 -0.007870527929229015    3    1    2    2
 0.000529610598077491    3    1    3    1
 -0.001096730113017329    3    1    3    2
 0.001159325946789664    3    1    3    3
 -7.568413052193827e-05    3    1    4    1
 3.400340149453381e-05    3    1    4    2
 0.0004232952522843076    3    1    4    3
 0.002138217761724543    3    1    4    4
 -0.01360081892696152    3    2    1    1
 -0.001672732474971032    3    2    2    1
 -0.01554215272972497    3    2    2    2
 -0.001096730113017551    3    2    3    1
 0.01203744847324972    3    2    3    2
 -0.0155421527297253    3    2    3    3
 8.387266842772433e-05    3    2    4    1
 -0.001096730113017659    3    2    4    2
 -0.001672732474970659    3    2    4    3
 -0.01360081892696161    3    2    4    4
 0.2625076313883376    3    3    1    1
 -0.01132732293189842    3    3    2    1
 0.496248049839617    3    3    2    2
 0.001159325946790066    3    3    3    1
 -0.01554215272972664    3    3    3    2
 0.9181574969555488    3    3    3    3
 0.00165507575957732    3    3    4    1
 -0.007870527929228079    3    3    4    2
 -0.008862930911814837    3    3    4    3
 0.4707223576563329    3    3    4    4
 -0.000885603855971668    4    1    1    1
 0.0002140262044717489    4    1    2    1
 0.00165507575957751    4    1    2    2
 -7.568413052193652e-05    4    1    3    1
 8.387266842762729e-05    4    1    3    2
 0.001655075759577554    4    1    3    3
 2.79369475612188e-05    4    1    4    1
 -7.568413052191366e-05    4    1    4    2
 0.0002140262044716728    4    1    4    3
 -0.0008856038559716297    4    1    4    4
 0.002138217761724582    4    2    1    1
 0.0004232952522843185    4    2    2    1
 0.001159325946789674    4    2    2    2
 3.40034014945543e-05    4    2    3    1
 -0.001096730113017424    4    2    3    2
 -0.007870527929229036    4    2    3    3
 -7.56841305219346e-05    4    2    4    1
 0.0005296105980774697    4    2    4    2
 -0.00124532060271596    4    2    4    3
 0.00159681441647595    4    2    4    4
 -0.002644182073427125    4    3    1    1
 0.0007003363132756964    4    3    2    1
 -0.01132732293189811    4    3    2    2
 0.000423295252284353    4    3    3    1
 -0.001672732474971032    4    3    3    2
 -0.008862930911813579    4    3    3    3
 0.0002140262044717282    4    3    4    1
 -0.001245320602716148    4    3    4    2
 0.01071055216404157    4    3    4    3
 -0.01242392375737776    4    3    4    4
 0.1738130155755416    4    4    1    1
 -0.002644182073426898    4    4    2    1
 0.2625076313883372    4    4    2    2
 0.002138217761724397    4    4    3    1
 -0.01360081892696166    4    4    3    2
 0.4707223576563332    4    4    3    3
 -0.0008856038559716464    4    4    4    1
 0.001596814416476258    4    4    4    2
 -0.01242392375737894    4    4    4    3
 0.8369463786153091    4    4    4    4
 -1.289444046731514    1    1  0  0
 -0.3034511988014224    2    1  0  0
 -1.529218238854481    2    2  0  0
 0.07609389278573239    3    1  0  0
 -0.3246124162476423    3    2  0  0
 -1.529218238854485    3    3  0  0
 -0.01884864799316997    4    1  0  0
 0.07609389278573239    4    2  0  0
 -0.3034511988014219    4    3  0  0
 -1.289444046731514    4    4  0  0
 2.407407407407407  0  0  0  0
